[Molden Format]
[Atoms] Angs
 C     1  6     0.000000    -0.778236     0.000000
 C     2  6     0.000000     0.778240     0.000000
 H     3  1     1.009830    -1.169780     0.000000
 H     4  1    -0.504910    -1.169793     0.874530
 H     5  1    -0.504910    -1.169793    -0.874530
 H     6  1     1.009824     1.169774     0.000000
 H     7  1    -0.504919     1.169782     0.874530
 H     8  1    -0.504919     1.169782    -0.874530
[GTO]
  1 0
 s    3 1.00
  0.1722560000D+03  0.6176690000D-01
  0.2591090000D+02  0.3587940000D+00
  0.5533350000D+01  0.7007130000D+00
 sp   2 1.00
  0.3664980000D+01 -0.3958970000D+00  0.2364600000D+00
  0.7705450000D+00  0.1215840000D+01  0.8606190000D+00
 sp   1 1.00
  0.1958570000D+00  0.1000000000D+01  0.1000000000D+01
  
  2 0
 s    3 1.00
  0.1722560000D+03  0.6176690000D-01
  0.2591090000D+02  0.3587940000D+00
  0.5533350000D+01  0.7007130000D+00
 sp   2 1.00
  0.3664980000D+01 -0.3958970000D+00  0.2364600000D+00
  0.7705450000D+00  0.1215840000D+01  0.8606190000D+00
 sp   1 1.00
  0.1958570000D+00  0.1000000000D+01  0.1000000000D+01
  
  3 0
 s    2 1.00
  0.5447178000D+01  0.1562850000D+00
  0.8245472400D+00  0.9046910000D+00
 s    1 1.00
  0.1831915800D+00  0.1000000000D+01
  
  4 0
 s    2 1.00
  0.5447178000D+01  0.1562850000D+00
  0.8245472400D+00  0.9046910000D+00
 s    1 1.00
  0.1831915800D+00  0.1000000000D+01
  
  5 0
 s    2 1.00
  0.5447178000D+01  0.1562850000D+00
  0.8245472400D+00  0.9046910000D+00
 s    1 1.00
  0.1831915800D+00  0.1000000000D+01
  
  6 0
 s    2 1.00
  0.5447178000D+01  0.1562850000D+00
  0.8245472400D+00  0.9046910000D+00
 s    1 1.00
  0.1831915800D+00  0.1000000000D+01
  
  7 0
 s    2 1.00
  0.5447178000D+01  0.1562850000D+00
  0.8245472400D+00  0.9046910000D+00
 s    1 1.00
  0.1831915800D+00  0.1000000000D+01
  
  8 0
 s    2 1.00
  0.5447178000D+01  0.1562850000D+00
  0.8245472400D+00  0.9046910000D+00
 s    1 1.00
  0.1831915800D+00  0.1000000000D+01
 

[MO]
 Ene=   -11.1515
 Spin= Alpha
 Occup=   2.000000
   1   0.699520
   2   0.073530
   3   0.000000
   4  -0.000290
   5   0.000000
   6  -0.070210
   7   0.000000
   8  -0.009820
   9   0.000000
  10  -0.697550
  11  -0.073330
  12   0.000000
  13  -0.000290
  14   0.000000
  15   0.070090
  16   0.000000
  17  -0.009840
  18   0.000000
  19   0.000900
  20   0.010210
  21   0.000900
  22   0.010210
  23   0.000900
  24   0.010210
  25  -0.000900
  26  -0.010180
  27  -0.000900
  28  -0.010180
  29  -0.000900
  30  -0.010180
 Ene=   -11.1512
 Spin= Alpha
 Occup=   2.000000
   1   0.696970
   2   0.069910
   3   0.000000
   4   0.000070
   5   0.000000
   6  -0.043060
   7   0.000000
   8   0.005210
   9   0.000000
  10   0.698950
  11   0.070120
  12   0.000000
  13  -0.000070
  14   0.000000
  15  -0.043260
  16   0.000000
  17  -0.005180
  18   0.000000
  19  -0.000820
  20   0.010540
  21  -0.000820
  22   0.010540
  23  -0.000820
  24   0.010540
  25  -0.000820
  26   0.010570
  27  -0.000820
  28   0.010570
  29  -0.000820
  30   0.010570
 Ene=    -1.0143
 Spin= Alpha
 Occup=   2.000000
   1  -0.155710
   2   0.151910
   3   0.000000
   4   0.042980
   5   0.000000
   6   0.408470
   7   0.000000
   8   0.003280
   9   0.000000
  10  -0.155710
  11   0.151910
  12   0.000000
  13  -0.042980
  14   0.000000
  15   0.408470
  16   0.000000
  17  -0.003280
  18   0.000000
  19   0.080230
  20   0.004150
  21   0.080230
  22   0.004150
  23   0.080230
  24   0.004150
  25   0.080230
  26   0.004150
  27   0.080230
  28   0.004150
  29   0.080230
  30   0.004150
 Ene=    -0.8485
 Spin= Alpha
 Occup=   2.000000
   1  -0.139040
   2   0.125480
   3   0.000000
   4  -0.105520
   5   0.000000
   6   0.485090
   7   0.000000
   8  -0.032740
   9   0.000000
  10   0.139040
  11  -0.125480
  12   0.000000
  13  -0.105520
  14   0.000000
  15  -0.485080
  16   0.000000
  17  -0.032740
  18   0.000000
  19   0.105850
  20   0.033730
  21   0.105850
  22   0.033730
  23   0.105850
  24   0.033730
  25  -0.105850
  26  -0.033730
  27  -0.105850
  28  -0.033730
  29  -0.105850
  30  -0.033730
 Ene=    -0.5972
 Spin= Alpha
 Occup=   2.000000
   1   0.000000
   2   0.000000
   3   0.266270
   4   0.000010
   5   0.000000
   6   0.000000
   7   0.203950
   8   0.000000
   9   0.000000
  10   0.000000
  11   0.000000
  12   0.266280
  13   0.000000
  14   0.000000
  15   0.000000
  16   0.203960
  17   0.000000
  18   0.000000
  19   0.170070
  20   0.147960
  21  -0.085040
  22  -0.073980
  23  -0.085040
  24  -0.073980
  25   0.170080
  26   0.147970
  27  -0.085040
  28  -0.073980
  29  -0.085040
  30  -0.073980
 Ene=    -0.5972
 Spin= Alpha
 Occup=   2.000000
   1   0.000000
   2   0.000000
   3   0.000000
   4   0.000000
   5   0.266270
   6   0.000000
   7   0.000000
   8   0.000000
   9   0.203950
  10   0.000000
  11   0.000000
  12   0.000000
  13   0.000000
  14   0.266270
  15   0.000000
  16   0.000000
  17   0.000000
  18   0.203960
  19   0.000000
  20   0.000000
  21   0.147290
  22   0.128140
  23  -0.147290
  24  -0.128140
  25   0.000000
  26   0.000000
  27   0.147290
  28   0.128140
  29  -0.147290
  30  -0.128140
 Ene=    -0.5011
 Spin= Alpha
 Occup=   2.000000
   1  -0.019560
   2   0.017180
   3   0.000010
   4   0.347060
   5   0.000000
   6   0.059470
   7   0.000010
   8   0.283400
   9   0.000000
  10  -0.019560
  11   0.017180
  12  -0.000010
  13  -0.347060
  14   0.000000
  15   0.059460
  16  -0.000010
  17  -0.283400
  18   0.000000
  19  -0.074920
  20  -0.082730
  21  -0.074930
  22  -0.082730
  23  -0.074930
  24  -0.082730
  25  -0.074930
  26  -0.082740
  27  -0.074920
  28  -0.082730
  29  -0.074920
  30  -0.082730
 Ene=    -0.4859
 Spin= Alpha
 Occup=   2.000000
   1   0.000000
   2   0.000000
   3   0.266150
   4  -0.000010
   5   0.000000
   6   0.000000
   7   0.255340
   8  -0.000010
   9   0.000000
  10   0.000000
  11   0.000000
  12  -0.266140
  13   0.000010
  14   0.000000
  15  -0.000010
  16  -0.255340
  17   0.000010
  18   0.000000
  19   0.198760
  20   0.195250
  21  -0.099370
  22  -0.097620
  23  -0.099370
  24  -0.097620
  25  -0.198750
  26  -0.195240
  27   0.099380
  28   0.097620
  29   0.099380
  30   0.097620
 Ene=    -0.4859
 Spin= Alpha
 Occup=   2.000000
   1   0.000000
   2   0.000000
   3   0.000000
   4   0.000000
   5   0.266150
   6   0.000000
   7   0.000000
   8   0.000000
   9   0.255340
  10   0.000000
  11   0.000000
  12   0.000000
  13   0.000000
  14  -0.266150
  15   0.000000
  16   0.000000
  17   0.000000
  18  -0.255340
  19   0.000000
  20   0.000000
  21   0.172130
  22   0.169090
  23  -0.172130
  24  -0.169090
  25   0.000000
  26   0.000000
  27  -0.172120
  28  -0.169090
  29   0.172120
  30   0.169090
 Ene=     0.2794
 Spin= Alpha
 Occup=   0.000000
   1  -0.108770
   2   0.027050
   3   0.000010
   4  -0.085270
   5   0.000000
   6   1.561040
   7   0.000030
   8  -0.504580
   9   0.000000
  10  -0.108760
  11   0.027050
  12   0.000000
  13   0.085270
  14   0.000000
  15   1.561020
  16   0.000020
  17   0.504570
  18   0.000000
  19   0.000620
  20  -0.756830
  21   0.000620
  22  -0.756780
  23   0.000620
  24  -0.756780
  25   0.000620
  26  -0.756820
  27   0.000620
  28  -0.756770
  29   0.000620
  30  -0.756770
 Ene=     0.3056
 Spin= Alpha
 Occup=   0.000000
   1   0.000000
   2   0.000000
   3   0.000000
   4   0.000000
   5  -0.184510
   6   0.000000
   7   0.000000
   8   0.000000
   9  -0.829180
  10   0.000000
  11   0.000000
  12   0.000000
  13   0.000000
  14  -0.184510
  15   0.000000
  16   0.000000
  17   0.000000
  18  -0.829190
  19   0.000000
  20   0.000000
  21   0.058390
  22   0.956540
  23  -0.058390
  24  -0.956540
  25   0.000000
  26   0.000000
  27   0.058390
  28   0.956550
  29  -0.058390
  30  -0.956550
 Ene=     0.3056
 Spin= Alpha
 Occup=   0.000000
   1   0.000000
   2   0.000000
   3  -0.184510
   4   0.000000
   5   0.000000
   6   0.000050
   7  -0.829200
   8  -0.000020
   9   0.000000
  10   0.000000
  11   0.000000
  12  -0.184510
  13   0.000010
  14   0.000000
  15   0.000060
  16  -0.829190
  17   0.000020
  18   0.000000
  19   0.067430
  20   1.104510
  21  -0.033710
  22  -0.552290
  23  -0.033710
  24  -0.552290
  25   0.067420
  26   1.104490
  27  -0.033710
  28  -0.552290
  29  -0.033710
  30  -0.552290
 Ene=     0.3421
 Spin= Alpha
 Occup=   0.000000
   1   0.146710
   2  -0.020790
   3   0.000000
   4   0.009530
   5   0.000000
   6  -2.110340
   7   0.000020
   8  -0.195490
   9   0.000000
  10  -0.146710
  11   0.020790
  12   0.000000
  13   0.009530
  14   0.000000
  15   2.110370
  16  -0.000010
  17  -0.195500
  18   0.000000
  19  -0.008840
  20   0.762770
  21  -0.008840
  22   0.762790
  23  -0.008840
  24   0.762790
  25   0.008840
  26  -0.762800
  27   0.008840
  28  -0.762800
  29   0.008840
  30  -0.762800
 Ene=     0.4240
 Spin= Alpha
 Occup=   0.000000
   1  -0.047480
   2   0.004200
   3  -0.000190
   4   0.262730
   5   0.000000
   6   0.631930
   7  -0.001020
   8   1.650540
   9   0.000000
  10   0.047480
  11  -0.004200
  12   0.000190
  13   0.262730
  14   0.000000
  15  -0.631940
  16   0.001020
  17   1.650530
  18   0.000000
  19   0.040340
  20   0.419670
  21   0.040310
  22   0.418030
  23   0.040310
  24   0.418030
  25  -0.040340
  26  -0.419670
  27  -0.040320
  28  -0.418020
  29  -0.040320
  30  -0.418020
 Ene=     0.4250
 Spin= Alpha
 Occup=   0.000000
   1   0.000000
   2   0.000000
   3   0.000000
   4   0.000000
   5  -0.233990
   6   0.000000
   7   0.000000
   8   0.000000
   9  -1.284700
  10   0.000000
  11   0.000000
  12   0.000000
  13   0.000000
  14   0.233990
  15   0.000000
  16   0.000000
  17   0.000000
  18   1.284700
  19   0.000000
  20   0.000000
  21   0.015600
  22   1.201810
  23  -0.015600
  24  -1.201810
  25   0.000000
  26   0.000000
  27  -0.015600
  28  -1.201810
  29   0.015600
  30   1.201810
 Ene=     0.4250
 Spin= Alpha
 Occup=   0.000000
   1  -0.000040
   2   0.000000
   3   0.233980
   4   0.000210
   5   0.000000
   6   0.000510
   7   1.284690
   8   0.001330
   9   0.000000
  10   0.000040
  11   0.000000
  12  -0.233990
  13   0.000210
  14   0.000000
  15  -0.000540
  16  -1.284720
  17   0.001320
  18   0.000000
  19  -0.017990
  20  -1.387380
  21   0.009040
  22   0.694190
  23   0.009040
  24   0.694190
  25   0.017980
  26   1.387440
  27  -0.009040
  28  -0.694200
  29  -0.009040
  30  -0.694200
 Ene=     0.9035
 Spin= Alpha
 Occup=   0.000000
   1   0.000000
   2   0.000000
   3   0.000000
   4   0.000000
   5  -0.482530
   6   0.000000
   7   0.000000
   8   0.000000
   9   0.647630
  10   0.000000
  11   0.000000
  12   0.000000
  13   0.000000
  14  -0.482540
  15   0.000000
  16   0.000000
  17   0.000000
  18   0.647650
  19   0.000000
  20   0.000000
  21  -0.406860
  22   0.098530
  23   0.406860
  24  -0.098530
  25   0.000000
  26   0.000000
  27  -0.406860
  28   0.098520
  29   0.406860
  30  -0.098520
 Ene=     0.9035
 Spin= Alpha
 Occup=   0.000000
   1   0.000000
   2   0.000000
   3  -0.482540
   4   0.000000
   5   0.000000
   6   0.000000
   7   0.647630
   8   0.000000
   9   0.000000
  10   0.000000
  11   0.000000
  12  -0.482540
  13  -0.000010
  14   0.000000
  15   0.000000
  16   0.647670
  17   0.000020
  18   0.000000
  19  -0.469800
  20   0.113770
  21   0.234900
  22  -0.056880
  23   0.234900
  24  -0.056880
  25  -0.469800
  26   0.113740
  27   0.234900
  28  -0.056870
  29   0.234900
  30  -0.056870
 Ene=     0.9846
 Spin= Alpha
 Occup=   0.000000
   1  -0.007210
   2  -0.045280
   3   0.000000
   4   0.699290
   5   0.000000
   6   0.559770
   7  -0.000020
   8  -0.898840
   9   0.000000
  10  -0.007210
  11  -0.045280
  12   0.000000
  13  -0.699320
  14   0.000000
  15   0.559780
  16  -0.000010
  17   0.898850
  18   0.000000
  19  -0.175980
  20  -0.065170
  21  -0.175990
  22  -0.065190
  23  -0.175990
  24  -0.065190
  25  -0.176000
  26  -0.065170
  27  -0.176000
  28  -0.065180
  29  -0.176000
  30  -0.065180
 Ene=     1.0692
 Spin= Alpha
 Occup=   0.000000
   1   0.059300
   2  -0.162060
   3   0.000020
   4  -0.730700
   5   0.000000
   6   0.297780
   7  -0.000040
   8   1.258630
   9   0.000000
  10  -0.059300
  11   0.162060
  12  -0.000010
  13  -0.730670
  14   0.000000
  15  -0.297810
  16   0.000030
  17   1.258580
  18   0.000000
  19   0.183980
  20   0.164740
  21   0.183970
  22   0.164740
  23   0.183970
  24   0.164740
  25  -0.183970
  26  -0.164740
  27  -0.183960
  28  -0.164730
  29  -0.183960
  30  -0.164730
 Ene=     1.1238
 Spin= Alpha
 Occup=   0.000000
   1   0.000000
   2   0.000000
   3   0.000000
   4   0.000000
   5  -0.618110
   6   0.000000
   7   0.000000
   8   0.000000
   9   1.695370
  10   0.000000
  11   0.000000
  12   0.000000
  13   0.000000
  14   0.618100
  15   0.000000
  16   0.000000
  17   0.000000
  18  -1.695360
  19   0.000000
  20   0.000000
  21  -0.357850
  22  -0.372420
  23   0.357850
  24   0.372420
  25   0.000000
  26   0.000000
  27   0.357850
  28   0.372420
  29  -0.357850
  30  -0.372420
 Ene=     1.1238
 Spin= Alpha
 Occup=   0.000000
   1   0.000000
   2   0.000000
   3   0.618110
   4   0.000010
   5   0.000000
   6  -0.000010
   7  -1.695380
   8  -0.000060
   9   0.000000
  10   0.000000
  11  -0.000010
  12  -0.618110
  13   0.000020
  14   0.000000
  15   0.000030
  16   1.695390
  17  -0.000060
  18   0.000000
  19   0.413200
  20   0.430030
  21  -0.206610
  22  -0.215030
  23  -0.206610
  24  -0.215030
  25  -0.413200
  26  -0.430050
  27   0.206600
  28   0.215040
  29   0.206600
  30   0.215040
 Ene=     1.3013
 Spin= Alpha
 Occup=   0.000000
   1   0.067300
   2   0.017980
   3  -0.000020
   4   0.337120
   5   0.000000
   6  -0.160530
   7   0.000010
   8  -0.055710
   9   0.000000
  10   0.067300
  11   0.017980
  12  -0.000020
  13  -0.337110
  14   0.000000
  15  -0.160560
  16   0.000030
  17   0.055730
  18   0.000000
  19   0.516050
  20  -0.209030
  21   0.516010
  22  -0.208980
  23   0.516010
  24  -0.208980
  25   0.516020
  26  -0.209000
  27   0.516020
  28  -0.208980
  29   0.516020
  30  -0.208980
 Ene=     1.3477
 Spin= Alpha
 Occup=   0.000000
   1   0.000000
   2   0.000000
   3   0.000000
   4   0.000000
   5   0.654380
   6   0.000000
   7   0.000000
   8   0.000000
   9  -0.708090
  10   0.000000
  11   0.000000
  12   0.000000
  13   0.000000
  14   0.654350
  15   0.000000
  16   0.000000
  17   0.000000
  18  -0.708050
  19   0.000000
  20   0.000000
  21  -0.502850
  22   0.786990
  23   0.502850
  24  -0.786990
  25   0.000000
  26   0.000000
  27  -0.502810
  28   0.786940
  29   0.502810
  30  -0.786940
 Ene=     1.3477
 Spin= Alpha
 Occup=   0.000000
   1   0.000000
   2   0.000010
   3   0.654470
   4   0.000010
   5   0.000000
   6  -0.000010
   7  -0.708200
   8   0.000010
   9   0.000000
  10   0.000000
  11   0.000000
  12   0.654260
  13  -0.000020
  14   0.000000
  15   0.000000
  16  -0.707940
  17   0.000020
  18   0.000000
  19  -0.580750
  20   0.908910
  21   0.290380
  22  -0.454450
  23   0.290380
  24  -0.454450
  25  -0.580460
  26   0.908500
  27   0.290260
  28  -0.454270
  29   0.290260
  30  -0.454270
 Ene=     1.3673
 Spin= Alpha
 Occup=   0.000000
   1   0.000000
   2   0.000000
   3   0.000000
   4   0.000000
   5  -0.542230
   6   0.000000
   7   0.000000
   8   0.000000
   9   0.629670
  10   0.000000
  11   0.000000
  12   0.000000
  13   0.000000
  14   0.542270
  15   0.000000
  16   0.000000
  17   0.000000
  18  -0.629710
  19   0.000000
  20   0.000000
  21   0.585350
  22  -0.850280
  23  -0.585350
  24   0.850280
  25   0.000000
  26   0.000000
  27  -0.585390
  28   0.850330
  29   0.585390
  30  -0.850330
 Ene=     1.3673
 Spin= Alpha
 Occup=   0.000000
   1   0.000000
   2  -0.000010
   3  -0.542110
   4  -0.000010
   5   0.000000
   6   0.000010
   7   0.629530
   8   0.000000
   9   0.000000
  10   0.000000
  11   0.000000
  12   0.542380
  13   0.000010
  14   0.000000
  15   0.000010
  16  -0.629820
  17  -0.000010
  18   0.000000
  19   0.675810
  20  -0.981660
  21  -0.337910
  22   0.490830
  23  -0.337910
  24   0.490830
  25  -0.676060
  26   0.982030
  27   0.338010
  28  -0.491000
  29   0.338010
  30  -0.491000
 Ene=     1.4476
 Spin= Alpha
 Occup=   0.000000
   1  -0.080620
   2   0.346380
   3  -0.000010
   4  -0.395340
   5   0.000000
   6  -0.150910
   7   0.000010
   8   0.832670
   9   0.000000
  10   0.080620
  11  -0.346380
  12  -0.000010
  13  -0.395350
  14   0.000000
  15   0.150900
  16   0.000020
  17   0.832670
  18   0.000000
  19  -0.483770
  20   0.542060
  21  -0.483800
  22   0.542090
  23  -0.483800
  24   0.542090
  25   0.483800
  26  -0.542090
  27   0.483790
  28  -0.542070
  29   0.483790
  30  -0.542070
 Ene=     1.9188
 Spin= Alpha
 Occup=   0.000000
   1   0.010830
   2  -1.382040
   3   0.000000
   4  -0.053300
   5   0.000000
   6   2.177760
   7   0.000000
   8  -0.299920
   9   0.000000
  10   0.010830
  11  -1.382030
  12   0.000000
  13   0.053300
  14   0.000000
  15   2.177770
  16   0.000000
  17   0.299910
  18   0.000000
  19  -0.020740
  20  -0.569100
  21  -0.020740
  22  -0.569110
  23  -0.020740
  24  -0.569110
  25  -0.020730
  26  -0.569110
  27  -0.020730
  28  -0.569110
  29  -0.020730
  30  -0.569110
 Ene=     2.3197
 Spin= Alpha
 Occup=   0.000000
   1   0.079160
   2   1.546860
   3   0.000000
   4  -0.020110
   5   0.000000
   6  -4.044860
   7   0.000000
   8  -0.794190
   9   0.000000
  10  -0.079160
  11  -1.546880
  12   0.000000
  13  -0.020100
  14   0.000000
  15   4.044880
  16  -0.000010
  17  -0.794210
  18   0.000000
  19   0.298720
  20   0.460990
  21   0.298720
  22   0.461000
  23   0.298720
  24   0.461000
  25  -0.298710
  26  -0.461000
  27  -0.298720
  28  -0.461000
  29  -0.298720
  30  -0.461000
[SCFCONV]
scf-first    1 THROUGH    9
    -78.394409
    -78.785814
    -78.789397
    -78.789557
    -78.789565
    -78.789566
    -78.789566
    -78.789566
    -78.789566
[GEOCONV]
energy
    -78.789566
max-force
      0.000158
rms-force
      0.000058
max-step
      0.000214
rms-step
      0.000115
[FREQ]
 -302.5530
  994.6120
  995.9040
  995.9180
 1313.2939
 1313.2990
 1577.6219
 1595.9530
 1675.2250
 1675.2300
 1689.0320
 1689.0370
 3203.7070
 3215.3899
 3250.9409
 3250.9409
 3275.0120
 3275.0129
[FR-COORD]
 C     0.000000    -1.470653     0.000000
 C     0.000000     1.470661     0.000000
 H     1.908303    -2.210564     0.000000
 H    -0.954142    -2.210589     1.652623
 H    -0.954142    -2.210589    -1.652623
 H     1.908291     2.210553     0.000000
 H    -0.954159     2.210568     1.652623
 H    -0.954159     2.210568    -1.652623
[FR-NORM-COORD]
vibration     1
    0.000000     0.000000     0.000000
    0.000000     0.000000     0.000000
    0.000000     0.000000    -0.410000
    0.350000     0.000000     0.200000
   -0.350000     0.000000     0.200000
    0.000000     0.000000     0.410000
   -0.350000     0.000000    -0.200000
    0.350000     0.000000    -0.200000
vibration     2
    0.000000     0.400000     0.000000
    0.000000    -0.400000     0.000000
   -0.030000     0.330000     0.000000
    0.010000     0.340000    -0.030000
    0.010000     0.340000     0.030000
   -0.030000    -0.330000     0.000000
    0.010000    -0.340000    -0.030000
    0.010000    -0.340000     0.030000
vibration     3
    0.000000     0.000000    -0.050000
    0.000000     0.000000    -0.050000
    0.000000     0.000000     0.230000
    0.030000     0.440000     0.170000
   -0.030000    -0.440000     0.170000
    0.000000     0.000000     0.230000
    0.030000    -0.440000     0.170000
   -0.030000     0.440000     0.170000
vibration     4
   -0.050000     0.000000     0.000000
   -0.050000     0.000000     0.000000
    0.150000     0.510000     0.000000
    0.210000    -0.250000     0.030000
    0.210000    -0.250000    -0.030000
    0.150000    -0.510000     0.000000
    0.210000     0.250000     0.030000
    0.210000     0.250000    -0.030000
vibration     5
    0.000000     0.000000     0.140000
    0.000000     0.000000    -0.140000
    0.000000     0.000000    -0.240000
   -0.080000    -0.440000    -0.110000
    0.080000     0.440000    -0.110000
    0.000000     0.000000     0.240000
    0.080000    -0.440000     0.110000
   -0.080000     0.440000     0.110000
vibration     6
    0.140000     0.000000     0.000000
   -0.140000     0.000000     0.000000
   -0.060000    -0.510000     0.000000
   -0.200000     0.250000    -0.080000
   -0.200000     0.250000     0.080000
    0.060000    -0.510000     0.000000
    0.200000     0.250000     0.080000
    0.200000     0.250000    -0.080000
vibration     7
    0.000000     0.090000     0.000000
    0.000000     0.090000     0.000000
   -0.160000    -0.370000     0.000000
    0.080000    -0.370000    -0.140000
    0.080000    -0.370000     0.140000
    0.160000    -0.370000     0.000000
   -0.080000    -0.370000     0.140000
   -0.080000    -0.370000    -0.140000
vibration     8
    0.000000    -0.080000     0.000000
    0.000000     0.070000     0.000000
    0.160000     0.370000     0.000000
   -0.080000     0.370000     0.140000
   -0.080000     0.370000    -0.140000
    0.160000    -0.370000     0.000000
   -0.080000    -0.370000     0.140000
   -0.080000    -0.370000    -0.140000
vibration     9
    0.000000     0.000000    -0.030000
    0.000000     0.000000     0.030000
    0.000000     0.000000     0.490000
    0.260000    -0.240000     0.040000
   -0.260000     0.240000     0.040000
    0.000000     0.000000    -0.490000
   -0.260000    -0.240000    -0.040000
    0.260000     0.240000    -0.040000
vibration    10
   -0.030000     0.000000     0.000000
    0.030000     0.000000     0.000000
   -0.110000    -0.280000     0.000000
    0.340000     0.140000     0.260000
    0.340000     0.140000    -0.260000
    0.110000    -0.280000     0.000000
   -0.340000     0.140000    -0.260000
   -0.340000     0.140000     0.260000
vibration    11
    0.000000     0.000000    -0.050000
    0.000000     0.000000    -0.050000
    0.000000     0.000000     0.510000
    0.270000    -0.200000     0.040000
   -0.270000     0.200000     0.040000
    0.000000     0.000000     0.510000
    0.270000     0.200000     0.040000
   -0.270000    -0.200000     0.040000
vibration    12
    0.050000     0.000000     0.000000
    0.050000     0.000000     0.000000
    0.120000     0.240000     0.000000
   -0.350000    -0.120000    -0.270000
   -0.350000    -0.120000     0.270000
    0.120000    -0.240000     0.000000
   -0.350000     0.120000    -0.270000
   -0.350000     0.120000     0.270000
vibration    13
    0.000000    -0.030000     0.000000
    0.000000    -0.030000     0.000000
   -0.390000     0.130000     0.000000
    0.190000     0.130000    -0.330000
    0.190000     0.130000     0.330000
    0.380000     0.130000     0.000000
   -0.190000     0.130000     0.330000
   -0.190000     0.130000    -0.330000
vibration    14
    0.000000     0.040000     0.000000
    0.000000    -0.040000     0.000000
    0.390000    -0.130000     0.000000
   -0.190000    -0.130000     0.330000
   -0.190000    -0.130000    -0.330000
    0.390000     0.130000     0.000000
   -0.190000     0.130000     0.330000
   -0.190000     0.130000    -0.330000
vibration    15
    0.000000     0.000000    -0.070000
    0.000000     0.000000     0.070000
    0.000000     0.000000    -0.020000
   -0.240000    -0.180000     0.400000
    0.240000     0.170000     0.400000
    0.000000     0.000000     0.020000
    0.240000    -0.170000    -0.400000
   -0.240000     0.170000    -0.400000
vibration    16
   -0.070000     0.000000     0.000000
    0.070000     0.000000     0.000000
    0.540000    -0.200000     0.000000
    0.120000     0.100000    -0.240000
    0.120000     0.100000     0.240000
   -0.540000    -0.200000     0.000000
   -0.120000     0.100000     0.240000
   -0.120000     0.100000    -0.240000
vibration    17
    0.000000     0.000000     0.070000
    0.000000     0.000000     0.070000
    0.000000     0.000000     0.020000
    0.240000     0.180000    -0.400000
   -0.240000    -0.180000    -0.400000
    0.000000     0.000000     0.020000
    0.240000    -0.180000    -0.400000
   -0.240000     0.180000    -0.400000
vibration    18
    0.070000     0.000000     0.000000
    0.070000     0.000000     0.000000
   -0.540000     0.200000     0.000000
   -0.120000    -0.100000     0.240000
   -0.120000    -0.100000    -0.240000
   -0.540000    -0.200000     0.000000
   -0.120000     0.100000     0.240000
   -0.120000     0.100000    -0.240000
